4096
Atoms. Timestep: 15400 Box_Length=50.09664 Å
1 0.109451 49.9308 49.9817
1 0.177805 2.5486 3.1826
1 3.0194 49.4866 3.13688
1 3.3866 2.76092 49.6703
1 1.96591 1.65943 1.42343
1 1.84442 4.04104 4.72526
1 4.7018 1.21481 4.67405
1 4.85359 4.11516 1.34499
1 6.60129 49.5603 50.1766
1 6.33788 3.00527 3.44912
1 8.86859 49.6471 3.26695
1 9.25723 2.81219 0.36691
1 7.56207 1.46255 1.80861
1 8.22492 4.39624 4.9102
1 10.6964 1.21704 4.82202
1 11.0375 4.3668 1.55469
1 12.5791 49.7523 -0.390257
1 12.5164 2.6059 3.44233
1 15.9011 49.8393 2.95859
1 15.5905 3.25151 50.3488
1 14.2477 1.63598 1.55992
1 13.9671 4.4203 4.48548
1 17.1127 1.5854 4.70169
1 16.9855 4.6688 1.70345
1 18.4042 0.234573 49.9002
1 18.714 2.98919 3.24141
1 22.112 0.0493755 3.03015
1 21.5239 3.17899 49.7307
1 20.3113 1.36848 1.53459
1 20.1728 4.47961 5.1031
1 23.5934 1.51491 4.58359
1 23.0989 4.494 1.48125
1 24.7467 49.7356 49.6678
1 25.2854 2.8727 2.96397
1 28.0219 49.8588 3.2027
1 28.0817 2.8426 49.8116
1 26.745 1.22797 1.28685
1 26.5185 4.44549 4.3625
1 29.5593 1.50548 4.46454
1 29.8043 4.70137 1.07743
1 31.1478 0.00922354 50.0254
1 31.099 2.91946 3.01381
1 34.1607 0.166808 3.05761
1 34.3149 3.01455 49.8373
1 32.5451 1.62311 1.44108
1 32.7829 4.95394 4.61454
1 35.846 1.77754 4.54378
1 35.7918 4.87451 1.22592
1 37.839 49.4452 49.9182
1 37.3759 3.22066 2.66229
1 40.8898 49.8674 3.14434
1 40.3233 2.79217 49.4682
1 39.0658 1.21482 1.61261
1 38.6981 4.85139 4.55041
1 42.2105 1.42576 4.36225
1 42.1508 4.08559 1.09923
1 43.6756 49.5298 49.5034
1 43.5766 2.84923 3.03019
1 46.482 50.0001 3.04241
1 46.8489 2.77614 50.3237
1 44.9664 1.18679 1.50668
1 45.1876 4.66071 4.42614
1 48.4166 1.34323 4.46641
1 48.324 4.23517 1.86947
1 49.9731 5.33909 0.0821669
1 50.0689 8.88093 3.17814
1 3.13697 5.65035 3.01198
1 3.30801 8.97224 -0.18401
1 1.65791 7.31483 1.44956
1 1.4275 10.9679 4.16239
1 4.458 7.4157 4.1717
1 4.73195 10.2346 1.50976
1 5.93137 5.99806 49.7913
1 6.40457 8.77111 2.89524
1 9.57734 5.81017 3.14629
1 9.58619 9.27875 49.9535
1 8.15634 7.12234 1.37527
1 7.60161 10.7369 4.40052
1 10.8845 7.58931 4.34142
1 10.828 10.9946 1.29271
1 12.4378 6.17531 0.202523
1 12.4068 9.52644 2.90001
1 15.6829 6.31808 3.04383
1 15.5976 9.64689 -0.16589
1 14.1536 7.84216 1.49238
1 14.0461 10.8173 4.40981
1 17.2117 7.93046 4.24539
1 17.3458 11.4346 1.12568
1 18.4415 6.00953 49.9739
1 18.744 9.28019 2.53585
1 22.0293 5.94082 3.26552
1 21.661 9.12311 50.2482
1 20.3415 7.17196 1.70053
1 20.5699 10.8489 4.48824
1 23.7125 7.6993 4.04237
1 23.3309 10.5195 1.15461
1 24.7874 5.82359 49.6821
1 25.2481 9.45269 2.75566
1 27.955 5.9875 2.84336
1 28.1762 9.08962 49.948
1 26.5636 7.5021 1.24236
1 26.4409 10.887 4.66896
1 29.6689 7.53768 4.11288
1 29.7235 10.8767 1.14437
1 31.3194 6.42261 49.4339
1 31.0007 9.62426 3.02022
1 34.1377 6.33673 2.81541
1 34.3457 9.49743 0.143448
1 32.6301 8.07313 1.39237
1 32.7405 11.0599 4.86772
1 35.6973 7.92305 4.78282
1 36.011 10.8031 1.66071
1 37.0775 6.23023 49.7567
1 37.4941 9.50149 3.25516
1 40.4344 6.02431 3.11179
1 40.1809 9.30218 0.209451
1 38.6734 7.80512 1.82729
1 39.2917 10.5843 4.95557
1 42.0917 7.69456 4.52074
1 42.3003 10.4617 1.49693
1 43.5784 6.23254 49.8166
1 43.7903 9.14315 3.24578
1 46.8234 6.19938 3.1911
1 46.8362 9.18277 50.342
1 45.0532 7.6191 1.70923
1 45.6591 10.7003 4.6745
1 48.6364 7.13971 4.46908
1 48.855 10.7332 1.42051
1 0.542132 12.4298 50.0618
1 0.105473 15.8673 2.93465
1 3.74108 11.8185 3.22991
1 2.77986 15.4777 49.6381
1 2.09712 14.1724 1.53175
1 1.48602 17.1803 4.75955
1 4.7196 13.8354 4.64756
1 4.32453 16.9239 1.38464
1 5.85599 12.2138 0.0315479
1 6.16309 15.5854 3.04591
1 9.26677 12.3415 2.99293
1 8.66881 15.6635 49.7548
1 7.52937 13.709 1.36127
1 7.5406 16.8531 4.83693
1 10.8892 14.0638 4.4804
1 10.4819 17.0506 1.39019
1 12.4137 12.844 49.8989
1 11.8262 15.7613 3.03747
1 15.7231 12.4858 2.81596
1 15.4994 15.5625 49.7782
1 13.6844 14.3342 1.63683
1 13.7974 17.0575 4.41359
1 17.1332 14.0848 4.4544
1 16.8217 17.0547 1.30139
1 18.9825 13.1868 49.6387
1 18.4433 15.8109 2.7616
1 22.0234 12.0622 2.66954
1 22.0946 15.6227 0.0309687
1 20.3546 14.1286 1.42878
1 20.095 17.2554 4.27575
1 23.7482 13.2794 4.22816
1 23.388 17.2066 1.75819
1 24.5427 12.4328 49.759
1 24.9563 15.3441 2.82987
1 27.8608 12.0763 3.01143
1 27.8967 15.6675 49.9762
1 26.4831 13.9402 1.29125
1 26.8293 16.8263 4.23267
1 29.6219 13.6953 4.74967
1 29.4699 17.0973 1.21057
1 31.1418 12.5356 49.5957
1 31.0665 15.5732 3.06465
1 33.9994 12.2845 2.61581
1 33.8808 15.7943 -0.323868
1 32.6269 13.9201 1.11262
1 33.0008 16.9509 4.58011
1 35.8616 13.7556 4.75312
1 35.7043 17.2156 1.65445
1 37.3152 12.6246 -0.149662
1 36.9725 15.6272 3.26511
1 40.2615 12.3728 2.99069
1 40.341 15.9429 49.7761
1 38.7899 14.427 1.64395
1 38.7741 17.3951 4.46353
1 41.8006 13.7874 4.75895
1 42.0455 17.0939 1.61285
1 43.9865 12.3499 0.468833
1 43.5738 15.3382 3.31357
1 47.2421 12.0239 3.01193
1 46.7967 15.5693 0.302296
1 45.431 13.804 2.06057
1 45.0379 17.035 4.82656
1 48.8489 13.9749 4.39583
1 48.4733 17.626 1.52983
1 50.0405 19.5158 0.246903
1 49.7527 22.2696 3.41437
1 2.852 18.578 2.73383
1 3.18747 21.8161 49.9268
1 1.65514 20.937 1.75056
1 1.76428 23.3161 4.49605
1 4.55905 20.1501 4.52582
1 4.4983 23.3909 1.61423
1 6.10441 18.4453 50.2067
1 6.02349 21.698 3.02131
1 8.98258 18.6082 3.28755
1 9.42804 21.4859 -0.0999497
1 7.58109 20.2814 1.57743
1 7.57478 23.0954 4.63009
1 10.5408 20.3173 4.80977
1 10.48 23.134 1.76386
1 12.5268 18.5493 0.209995
1 12.422 21.8139 3.24659
1 15.4752 18.8828 3.24446
1 15.4685 21.9212 49.9224
1 14.2288 20.4509 1.71945
1 14.2536 23.4197 4.68691
1 16.834 20.0658 4.68471
1 16.9479 23.1264 1.62144
1 18.4226 18.7768 49.793
1 18.5395 21.6297 3.07678
1 21.6708 18.9845 3.08574
1 21.7836 21.3099 49.8281
1 20.1466 20.2663 1.35858
1 19.8739 23.4147 4.92684
1 23.2552 20.2383 4.72211
1 22.7661 23.7582 1.47156
1 24.9143 18.9063 50.1835
1 24.2201 22.2312 3.02132
1 27.9803 18.785 2.75954
1 27.7773 22.0169 50.2002
1 26.3034 20.2532 1.68532
1 26.3971 23.3598 4.40977
1 29.248 20.5122 4.41066
1 29.2383 23.3268 1.85866
1 30.8318 18.8587 0.0367501
1 31.5078 21.9059 3.30751
1 34.4031 19.0068 3.06456
1 34.0089 21.973 0.141273
1 32.8597 19.9473 1.30823
1 33.0343 23.8582 5.14826
1 35.9805 20.3605 4.81569
1 35.7778 23.504 1.30811
1 37.3248 19.0854 50.1977
1 37.4926 22.2026 2.93304
1 40.3257 18.9455 3.11935
1 40.7194 21.7932 49.4939
1 38.9644 20.5936 1.32231
1 39.2358 23.2703 4.81961
1 42.0594 20.2484 4.84523
1 42.2826 23.092 1.41368
1 43.356 18.665 0.249718
1 43.6545 21.4302 3.21301
1 46.5701 18.457 3.44012
1 46.6567 21.8119 0.464166
1 45.1985 19.7527 1.60985
1 45.4404 23.5086 4.53067
1 48.4434 20.1839 4.81799
1 48.4694 23.7036 1.40705
1 49.8276 25.2972 49.9418
1 -0.086766 28.1392 2.76578
1 3.36761 25.3021 3.18479
1 3.42321 28.2807 -0.0786208
1 1.93452 26.7734 1.80515
1 1.70425 29.5916 4.48377
1 4.56187 26.8082 4.78554
1 5.07456 30.092 1.36977
1 6.68845 24.9192 49.9543
1 6.18133 27.9705 2.93829
1 9.16324 24.6136 3.24821
1 9.09491 27.8899 0.57983
1 7.6331 25.895 1.71597
1 7.94018 29.3982 4.69441
1 10.6926 26.5191 4.79449
1 10.8065 29.601 1.66367
1 12.1729 25.159 0.111505
1 12.5193 28.1018 3.46859
1 15.3304 25.1648 3.12419
1 15.5895 27.8818 0.0743527
1 13.9564 26.5915 1.54355
1 13.9133 29.7761 4.7278
1 16.9126 26.4982 5.03634
1 17.2644 29.4656 1.39822
1 18.4618 24.504 0.106034
1 18.5129 28.2756 3.12483
1 21.3817 25.3306 3.40672
1 21.6071 28.2447 0.0382939
1 19.9639 26.5438 1.52089
1 19.8596 29.7368 4.89649
1 23.0017 26.6941 4.69246
1 23.2254 29.6479 1.84125
1 24.7992 25.0241 -0.262269
1 24.9875 28.1634 3.18043
1 28.0966 25.1283 3.05166
1 27.7392 28.3547 0.310971
1 26.3648 26.2027 1.48724
1 26.5097 29.4606 4.83127
1 29.5063 26.3807 4.59914
1 29.4758 29.8251 1.56588
1 30.9551 24.8092 0.535011
1 30.7942 28.0612 2.93207
1 34.3626 24.9777 2.96871
1 34.0128 28.0998 50.1291
1 32.3604 26.5219 1.7964
1 32.6922 29.1195 4.6666
1 35.8156 26.5203 4.99992
1 35.5918 29.4231 1.71752
1 37.7333 24.9014 49.8137
1 37.392 27.6225 2.92339
1 40.9746 24.4717 3.17211
1 40.8101 28.0555 49.8709
1 39.4919 26.4599 1.71287
1 38.6549 29.3129 4.71779
1 42.2392 26.2643 4.48903
1 42.0483 29.3166 1.82387
1 43.8925 25.3761 -0.0329023
1 43.8025 27.9599 3.17764
1 46.898 25.2497 2.95498
1 47.046 28.069 49.9526
1 45.5999 26.6397 1.67377
1 45.2439 29.6305 4.58726
1 48.6635 26.6562 4.38069
1 48.458 29.9927 1.36244
1 0.0375419 31.242 49.9449
1 0.22864 34.4775 2.93877
1 3.22924 31.23 2.95985
1 3.81683 34.3605 50.0451
1 1.73803 32.6433 1.30368
1 1.90511 35.7903 4.7959
1 5.13769 32.9009 4.49112
1 4.95931 35.9021 1.73385
1 6.99894 31.5427 50.1613
1 6.70854 34.7071 3.12195
1 9.53933 30.8994 3.23001
1 9.68385 34.5602 -0.422491
1 8.57365 32.984 1.72045
1 8.02554 36.2966 4.6661
1 10.642 32.777 4.57047
1 10.9488 36.2516 1.65924
1 12.7097 30.8248 0.33031
1 12.6422 34.4925 3.53699
1 15.5572 31.0838 3.16741
1 15.1822 34.5549 0.125071
1 13.9782 32.9793 1.66911
1 14.35 35.7427 4.8971
1 17.1404 32.8632 4.9081
1 16.9443 35.9187 1.48346
1 18.9239 31.3769 50.0127
1 18.501 34.4345 3.28166
1 21.8929 31.173 3.29309
1 21.9388 34.4102 49.7286
1 20.4704 33.0489 1.52853
1 20.3163 35.786 4.85203
1 23.5078 32.8299 4.62544
1 23.5107 35.8752 1.80671
1 24.5247 31.204 0.244698
1 25.0822 34.3371 2.97041
1 27.9043 31.1981 3.29354
1 27.9793 34.2333 0.0412814
1 26.6101 32.4418 1.58348
1 26.3499 35.9077 4.69995
1 29.5901 32.4472 4.92998
1 29.724 35.7802 1.84225
1 31.0628 31.519 0.161846
1 31.2404 33.8995 3.16082
1 34.2763 30.6271 3.44232
1 34.0322 34.1696 0.211871
1 32.9718 32.5371 1.86791
1 32.6331 35.7709 4.83532
1 35.6758 32.3772 4.86579
1 35.403 35.7224 1.66104
1 37.2608 30.9462 0.259196
1 37.4924 34.4694 3.16231
1 40.5155 30.9234 3.15509
1 40.8102 34.2107 0.321081
1 39.0795 32.5794 1.69206
1 39.0058 35.6493 5.15215
1 42.3354 32.4757 4.68305
1 42.2452 36.2204 1.51054
1 43.8416 30.794 0.243257
1 43.7016 34.0486 3.02865
1 47.1941 31.0523 3.21652
1 46.9219 34.8661 49.9706
1 45.6115 32.8064 1.4662
1 45.2283 36.1961 4.45999
1 48.5933 32.8476 4.65285
1 48.6251 35.9958 1.55437
1 0.321742 37.3659 50.0567
1 0.0453274 40.5987 2.83198
1 3.24278 37.3259 3.28569
1 2.99779 40.2225 0.096033
1 1.61527 38.5586 1.65412
1 1.70442 41.9812 4.288
1 4.84962 38.8462 4.81064
1 4.76552 42.1539 1.30643
1 6.37264 37.6143 0.21958
1 6.1792 40.621 3.02308
1 9.69104 38.0941 2.9025
1 9.63372 40.4861 -0.0276048
1 7.86713 39.0975 1.65321
1 7.89348 42.5978 4.59738
1 11.5213 38.9262 4.8789
1 10.9077 42.282 1.45296
1 12.8492 37.3073 0.0511137
1 12.7531 40.8381 3.23575
1 15.6455 37.4636 3.27707
1 15.4922 40.6691 49.9213
1 14.1397 39.0944 1.81364
1 14.1075 42.3464 4.97518
1 16.9381 39.3156 4.77194
1 16.8364 42.1854 1.70488
1 18.5239 37.524 49.97
1 18.8044 40.6279 3.07968
1 21.9445 37.4265 3.3529
1 21.9315 40.4911 0.311709
1 20.1936 39.0246 1.50031
1 20.5033 42.7115 4.70818
1 23.7139 39.4633 4.55348
1 23.4037 42.4505 1.43124
1 24.9294 37.0552 0.172314
1 24.9373 40.948 2.83491
1 28.1398 37.6239 3.56563
1 28.1363 40.0847 0.328883
1 26.1969 38.699 1.92116
1 26.8508 42.0703 4.52145
1 29.4548 39.0691 5.47797
1 29.4963 41.8511 2.18275
1 31.3778 37.109 0.326672
1 31.1982 40.6346 3.89729
1 34.33 37.6556 3.18088
1 34.3759 40.3438 0.0235105
1 32.6225 39.3247 1.60908
1 32.7227 42.4512 5.27074
1 35.9508 38.9362 4.91226
1 35.7472 41.7894 1.88525
1 37.3942 37.0966 0.0515628
1 37.4648 40.5687 3.38011
1 39.9945 36.9921 2.99266
1 40.5283 40.6607 49.6835
1 38.8784 38.8411 1.62734
1 38.9892 42.1589 4.63193
1 41.7767 38.3981 4.21734
1 41.8367 41.8985 1.39145
1 43.6287 37.7766 49.3698
1 43.6239 40.4204 2.67988
1 46.9402 37.6992 2.62184
1 46.9843 40.4666 49.6964
1 45.368 39.0496 1.13424
1 45.4475 41.6736 4.34342
1 48.5524 39.2503 4.06161
1 48.7016 42.0224 0.982026
1 0.144921 43.6285 49.5932
1 50.0837 46.7127 3.14713
1 2.98837 43.8316 3.02492
1 2.89594 46.5359 49.8726
1 1.22454 45.344 1.43339
1 1.25529 48.0722 5.19797
1 4.68554 45.3135 4.39949
1 4.79784 48.3237 1.19653
1 6.27964 43.6832 49.7668
1 6.54271 46.5032 2.70322
1 9.63829 43.6607 3.20978
1 9.76105 46.6154 -0.0530998
1 8.01613 44.8665 1.50377
1 7.7111 47.952 4.58471
1 11.4196 45.2627 4.66306
1 10.9175 48.29 1.84172
1 12.8592 43.4187 49.9899
1 12.6236 46.8468 3.1225
1 15.4964 43.8402 3.1173
1 15.2638 47.3858 0.227922
1 13.876 45.1851 1.58201
1 13.8652 48.6206 4.65787
1 17.1476 45.2183 4.60493
1 17.3798 48.3872 1.26593
1 18.2302 44.164 0.32786
1 18.5764 47.0605 3.42569
1 21.8028 44.226 3.24424
1 21.4159 46.9547 0.201406
1 19.7271 45.4534 1.97865
1 20.2285 48.6143 4.6146
1 23.5358 45.4919 4.71221
1 23.0821 48.3752 1.22679
1 24.8804 44.0572 50.2167
1 24.9965 46.9769 3.01309
1 28.2028 43.9455 3.35849
1 28.1789 46.9772 50.0923
1 26.5482 45.5603 1.51383
1 26.3478 48.5421 4.76224
1 29.7999 45.4435 5.07804
1 29.8154 48.6779 1.75213
1 31.0055 43.2498 0.314278
1 31.1106 46.9396 3.25523
1 34.1557 43.6712 2.9947
1 34.0771 46.3914 -0.111859
1 32.509 45.1783 1.6197
1 32.8487 48.4986 4.74201
1 35.8923 45.1222 4.7078
1 35.9277 48.4096 1.29905
1 37.1932 43.6124 50.0954
1 37.4007 47.0362 3.08123
1 40.3647 43.3585 2.68883
1 40.3953 46.914 49.977
1 38.822 45.4537 1.35716
1 39.195 48.4995 4.73884
1 42.3645 44.9366 3.96265
1 42.219 48.5948 1.13793
1 43.3837 43.813 0.047339
1 43.6063 47.1604 2.71427
1 47.2783 43.5131 2.6734
1 46.9547 46.8668 49.9866
1 45.284 45.4242 1.42936
1 44.9222 48.4093 4.57964
1 48.578 44.9837 4.45365
1 48.1968 48.3674 1.76044
1 50.0907 0.232438 6.22358
1 -0.0945196 2.86058 9.25151
1 3.33447 0.114242 9.37425
1 3.33367 2.83054 6.22832
1 1.72113 1.47523 7.75151
1 1.88532 4.75427 10.8309
1 5.03592 1.86011 10.9603
1 5.08901 4.65108 7.59906
1 6.27878 49.6541 6.00513
1 6.32647 3.19791 9.31948
1 9.58262 0.0880689 9.40202
1 9.53515 3.25536 6.78651
1 7.95738 1.4779 7.7581
1 7.89966 4.75281 10.7602
1 11.1027 1.90611 11.1487
1 10.9421 5.03581 7.76939
1 12.3747 49.9394 6.37912
1 12.431 3.32061 9.33437
1 15.638 50.0159 8.66113
1 15.3634 3.05489 6.25325
1 13.7203 1.74285 7.98681
1 14.3393 4.77306 10.6422
1 17.369 1.35998 10.3807
1 17.1187 4.94806 7.31779
1 18.6999 49.9046 6.05338
1 18.6162 3.57226 9.0863
1 21.7499 0.0433889 9.2709
1 22.2 2.76654 6.50424
1 19.9935 1.53286 7.9896
1 20.2917 4.71791 10.833
1 23.2774 2.0739 10.8569
1 23.2887 4.73264 7.83392
1 25.1599 0.0342988 6.42004
1 25.0267 3.46856 9.24142
1 28.0999 0.299398 9.293
1 28.2973 3.34639 6.0035
1 26.6347 1.78373 7.57524
1 26.7278 4.82414 10.9906
1 29.9541 1.98231 11.1683
1 29.7803 4.95998 8.05091
1 31.3212 0.186356 6.13841
1 31.2472 3.1632 9.37918
1 34.0404 -0.252073 9.23109
1 34.2246 3.15792 5.97664
1 32.7672 1.8554 7.54459
1 32.8167 4.35349 10.7816
1 35.9261 0.757683 11.1369
1 35.9311 4.30103 7.93581
1 37.5516 -0.206202 6.21952
1 36.9682 2.59331 9.12892
1 40.4403 49.8169 9.35016
1 40.7297 2.90225 5.93506
1 39.0413 1.27926 7.86323
1 38.5115 4.49159 10.6799
1 41.7733 1.64258 10.4461
1 42.2556 4.38429 7.61514
1 43.558 50.0004 6.0565
1 43.8663 2.83357 9.10677
1 46.823 49.6386 9.29357
1 46.4617 3.05182 6.01342
1 45.1112 1.25605 7.57449
1 45.4269 4.37525 10.7892
1 48.9134 1.00881 10.5069
1 48.4761 4.43787 7.59766
1 0.353902 5.72405 6.2034
1 49.7913 9.4533 9.17883
1 3.21646 6.19757 9.09633
1 2.93391 9.12402 5.69106
1 1.44215 7.61621 7.71463
1 1.73381 11.0567 10.6335
1 4.62509 7.79776 10.4684
1 4.57676 10.7047 7.40929
1 6.58025 6.26203 6.30959
1 5.9781 9.45665 9.13326
1 9.74171 6.48259 9.4831
1 9.31445 9.31131 5.66028
1 8.1595 7.91642 7.94853
1 8.01438 10.4609 10.7492
1 11.0763 8.0162 11.0248
1 11.0939 11.0493 7.06918
1 12.6462 6.05269 5.85105
1 12.4703 9.58727 9.19115
1 15.7954 6.57379 8.92022
1 15.6992 9.28373 5.95223
1 14.1073 7.74533 7.48835
1 14.1295 11.0201 11.1817
1 17.0817 8.41433 10.7974
1 17.1281 11.4179 7.05751
1 18.9397 6.72265 6.02103
1 18.7043 9.9053 8.96402
1 21.7303 6.43554 9.43342
1 22.229 9.08455 5.81662
1 20.2222 8.29264 7.62442
1 20.3196 11.2263 10.5865
1 23.5655 7.99824 10.6936
1 23.4363 10.7998 7.64506
1 24.9391 6.16718 6.20852
1 25.1308 9.54703 9.08555
1 28.4277 6.37797 9.65763
1 28.0857 8.69771 5.79672
1 26.5943 7.58659 7.94002
1 26.3426 11.2921 10.7734
1 29.7349 8.09691 11.4003
1 29.5563 10.7792 7.90413
1 31.1549 6.41817 5.95886
1 31.1039 9.14954 9.54201
1 34.265 6.22256 9.70324
1 34.1424 9.46886 6.59928
1 32.7532 7.47689 8.07757
1 32.8649 10.9503 11.0645
1 36.1999 7.59447 11.0688
1 35.984 10.9483 8.42449
1 36.8717 5.99426 6.22073
1 37.6907 9.26331 9.3704
1 40.1336 5.89318 9.03943
1 40.7104 8.91719 6.43555
1 38.5765 7.68643 7.60231
1 39.3174 10.6835 11.0859
1 41.702 7.38423 11.2486
1 42.0385 10.9821 8.20271
1 43.8501 6.28748 6.35711
1 43.6962 9.17187 9.92623
1 46.9327 5.94854 9.46052
1 46.7874 9.04121 6.14191
1 45.2652 7.58198 8.08872
1 45.7817 10.5092 10.9391
1 48.59 7.55677 10.9031
1 48.3374 10.9141 7.91578
1 -0.00385203 12.4358 6.0987
1 -0.276643 15.2016 9.28923
1 3.17195 12.2202 8.78247
1 3.09794 15.4367 5.79333
1 1.52789 14.0496 7.50546
1 1.63442 16.8267 10.9319
1 4.73927 13.6506 10.6139
1 4.70484 16.9202 7.43121
1 6.19569 12.1987 5.95448
1 6.29505 15.3991 9.39877
1 9.42001 12.1446 9.04545
1 9.27813 15.1962 6.03066
1 7.73661 13.8891 7.70915
1 7.79706 16.9864 10.9472
1 11.0607 13.732 10.6274
1 10.9179 17.0065 7.39279
1 12.8807 12.7619 5.85383
1 12.4609 15.6192 9.29666
1 15.7051 12.2958 9.18808
1 15.6804 15.9498 5.89829
1 14.1687 14.4559 7.6245
1 13.7188 17.2446 10.9906
1 17.1509 13.9417 10.542
1 17.0066 17.1219 7.94271
1 18.9896 12.5452 5.90891
1 18.7231 15.4296 8.8975
1 22.1386 12.5316 9.09451
1 22.0568 15.7153 5.41152
1 20.7557 14.1741 7.1285
1 20.3475 17.3599 10.4078
1 23.6779 14.3062 10.7641
1 23.3155 16.7287 7.48067
1 25.188 12.4096 6.52197
1 25.1593 15.8239 9.3572
1 28.2444 12.447 9.51738
1 28.1502 15.4431 6.16281
1 26.718 14.142 7.97439
1 26.4181 17.3851 11.3435
1 29.2852 14.0739 11.3313
1 29.4679 17.3118 7.49024
1 30.9975 12.598 6.53508
1 30.6984 15.4685 9.61997
1 34.6397 12.7891 9.95796
1 33.9858 15.0843 6.52551
1 32.6301 13.9229 8.46643
1 32.467 17.0041 11.0783
1 36.1492 14.6263 11.2089
1 35.6299 17.1331 7.75024
1 37.3842 11.986 6.44723
1 37.5956 15.9105 9.13568
1 40.6211 12.8441 9.65282
1 40.5282 15.776 6.04559
1 39.1924 14.2453 7.77269
1 39.2632 17.2199 10.8504
1 42.258 13.8542 11.6052
1 42.4409 17.1847 7.83047
1 43.8308 12.3471 6.15455
1 43.6155 15.2581 9.65771
1 46.8428 12.6075 9.65127
1 46.8141 15.3863 6.09536
1 45.5114 14.0952 7.89834
1 45.4397 16.8321 11.2021
1 48.6291 13.7822 11.426
1 48.1016 16.8807 7.90429
1 50.0477 18.2716 6.19897
1 0.00161842 21.5753 9.27321
1 2.94582 18.4722 8.9882
1 3.11628 22.1149 6.23144
1 1.44029 20.0953 7.42332
1 1.2613 23.3292 10.9995
1 4.52978 19.5671 11.1097
1 4.42849 22.8102 8.28808
1 6.15091 18.7127 6.15315
1 5.9091 21.3529 9.8073
1 9.02698 18.58 8.94135
1 9.00014 21.9522 6.47483
1 7.43909 20.4114 7.7237
1 7.79469 22.9993 10.8993
1 10.6715 20.2776 10.648
1 10.9556 23.5968 7.77712
1 12.4741 18.848 6.12586
1 12.5264 21.9989 9.32154
1 15.706 18.945 9.56938
1 15.8145 22.1543 6.2145
1 14.2524 20.4361 7.75219
1 13.8749 23.6811 10.8816
1 17.198 20.4952 10.8556
1 17.0704 23.2536 8.30471
1 18.4277 18.4595 6.42168
1 19.1374 21.6612 9.35657
1 22.2496 18.6927 9.03579
1 21.6717 21.7171 6.2491
1 20.3713 19.996 7.55796
1 20.3729 23.4242 10.8902
1 22.9532 20.6889 10.8872
1 23.3743 23.4474 7.7352
1 24.9795 18.5321 6.01008
1 24.6447 21.9888 9.35373
1 27.7301 18.8224 9.69695
1 27.9492 21.8576 6.41948
1 26.1669 20.4141 7.95377
1 26.2491 23.3816 10.8887
1 29.674 20.2296 11.2533
1 29.2111 23.5826 8.06407
1 31.2973 19.1988 6.16342
1 31.0655 22.2798 9.66277
1 34.2947 18.858 9.60632
1 34.4196 22.0162 6.42678
1 32.5657 20.5839 8.25578
1 32.8509 23.6314 11.3188
1 36.0758 20.2001 11.2916
1 35.6574 23.5739 8.3951
1 37.5402 18.7464 6.19641
1 37.3427 21.8061 9.63062
1 41.0886 18.5699 9.48315
1 40.6243 21.9448 6.81118
1 39.1813 20.4775 8.26269
1 39.0577 23.1429 11.3983
1 42.2865 20.2408 11.3039
1 42.3882 23.4813 8.03846
1 43.8936 18.7061 6.49284
1 43.7768 21.8712 9.75665
1 46.704 18.2327 9.64848
1 46.6388 21.8335 6.44605
1 45.2899 20.3864 8.31626
1 45.5585 23.2962 10.9426
1 48.6802 19.8808 10.7334
1 48.4161 23.2142 7.67634
1 0.120906 24.918 6.03947
1 -0.21621 28.4224 9.09025
1 2.99853 24.8592 9.40279
1 3.08544 28.3843 6.44133
1 1.47991 26.6121 7.80857
1 1.53597 29.7482 10.7904
1 4.79166 26.4821 10.8865
1 4.85004 29.5474 8.08796
1 5.67806 24.7387 6.36269
1 6.28323 27.8166 9.28204
1 9.33057 25.1363 9.39821
1 9.37379 27.7698 6.69795
1 7.66242 26.3528 7.97397
1 7.76192 29.5805 11.0028
1 10.8003 26.8359 11.054
1 10.6135 29.7018 7.89843
1 12.4281 25.0498 6.27034
1 12.2637 28.2957 9.53041
1 15.4617 25.1798 9.33446
1 15.7478 28.2295 6.36029
1 13.7754 26.935 7.9359
1 13.8072 29.9347 11.2216
1 16.9451 26.2535 11.2058
1 16.9196 29.8015 8.09662
1 18.2744 25.09 6.61673
1 18.3708 28.3743 9.79803
1 21.7043 24.9987 9.27511
1 21.7047 28.2867 6.57341
1 19.8054 26.8669 8.00419
1 20.3828 29.7575 11.3262
1 23.4135 26.534 11.0079
1 23.1554 29.8443 8.26422
1 24.7608 25.0585 6.15671
1 24.8997 28.3309 9.57099
1 27.7257 25.2206 9.55167
1 28.274 27.9608 6.20612
1 26.3388 26.675 7.79402
1 26.2954 30.0283 11.0964
1 29.427 26.9387 10.9391
1 29.6691 29.5638 7.95958
1 31.179 25.3429 6.35389
1 31.0716 28.0719 9.43635
1 34.5882 25.5434 9.92438
1 34.3463 27.9329 6.5337
1 32.5127 26.1816 8.23169
1 32.9098 29.7699 11.0135
1 36.239 27.0215 11.1295
1 36.226 29.571 7.90205
1 37.6342 24.6643 6.29393
1 37.6454 27.9471 9.27752
1 40.6409 24.7473 9.63595
1 40.5819 27.9679 6.28377
1 39.0716 26.1399 7.89101
1 39.4704 29.5782 10.9077
1 42.393 26.2894 10.7997
1 42.4145 29.5722 7.97988
1 44.0739 25.0658 6.47503
1 43.955 28.0474 9.4947
1 47.273 24.6661 9.34499
1 46.9811 27.8656 6.43678
1 45.6874 26.5038 8.087
1 45.4859 29.8212 11.1829
1 48.5494 26.7938 10.5539
1 48.4454 29.9066 7.31074
1 0.186834 31.2777 6.0619
1 49.9311 34.2462 9.49848
1 3.27461 31.0211 9.78593
1 3.42513 34.2321 6.13017
1 1.77464 32.754 7.92927
1 1.27089 35.612 11.1905
1 4.74946 33.1436 10.8407
1 4.82983 35.7838 7.85175
1 6.436 30.9394 6.105
1 6.2349 34.1183 8.96896
1 9.06827 31.3774 9.44231
1 9.4212 34.5719 5.84179
1 7.89524 32.6098 7.25509
1 7.69962 35.8999 11.0672
1 10.5075 33.3792 11.2748
1 10.9343 35.9112 7.49769
1 12.0559 31.4962 6.34924
1 12.3874 34.5935 9.35373
1 15.2201 31.2679 9.3763
1 15.6913 34.477 6.672
1 13.7179 32.7748 7.9152
1 13.9245 35.9627 10.8962
1 16.9036 32.8025 10.9279
1 17.1714 36.3457 7.83747
1 18.5974 31.3911 6.60492
1 18.1718 34.6049 9.72191
1 21.628 31.2557 9.95863
1 21.5527 34.5623 6.70865
1 20.2297 33.0332 8.26048
1 20.3965 36.0236 11.2593
1 23.454 32.7975 11.0349
1 23.5764 35.8354 7.86148
1 24.8147 31.2299 6.13528
1 25.2412 34.2538 9.61298
1 28.1254 31.2187 9.39562
1 27.8691 34.2094 6.1545
1 26.4111 32.6702 7.83961
1 26.6166 35.7856 11.34
1 30.0173 32.8795 10.8008
1 29.554 35.9054 7.97675
1 31.1501 30.6828 6.30775
1 31.3272 34.6211 9.33378
1 34.6869 31.0873 9.34868
1 34.352 34.1767 6.35786
1 33.0537 32.1969 7.75589
1 33.1095 35.7404 11.1336
1 36.2531 32.8101 10.9286
1 35.8651 35.7565 7.78479
1 37.5707 31.2052 6.35596
1 37.8602 34.3339 9.15368
1 40.6666 31.0936 9.16081
1 41.1587 34.2474 6.29227
1 39.3456 32.8022 7.69396
1 39.2323 36.1524 10.9341
1 41.9661 32.5506 10.8067
1 42.3569 36.0544 7.8728
1 44.2055 31.3791 6.36933
1 43.5687 34.2055 9.46089
1 46.9803 31.0022 9.48911
1 46.6835 34.0842 6.04193
1 45.4574 32.6907 8.20542
1 44.8508 35.7941 11.0535
1 48.2901 32.6493 11.1596
1 48.4881 35.8753 7.48403
1 49.9883 37.5284 5.74435
1 49.63 40.1982 9.50402
1 2.87711 37.2923 9.29201
1 3.1014 40.3587 6.21339
1 1.17816 38.5304 7.87971
1 1.36687 41.916 10.7575
1 4.37708 38.8978 10.7774
1 4.65129 42.1728 7.47383
1 6.43344 37.3722 6.62593
1 6.13839 40.8404 9.42199
1 9.69386 37.2942 9.29313
1 9.30937 40.8001 5.85542
1 8.13205 39.2723 8.02426
1 7.66276 42.207 10.9358
1 11.0553 39.2477 10.984
1 11.1874 42.2652 7.80775
1 12.9686 37.3194 6.35841
1 12.7829 40.7538 9.28928
1 15.58 37.506 9.53449
1 15.592 40.8896 6.40435
1 14.4074 39.2328 7.87475
1 13.8201 42.5842 10.902
1 17.2478 39.4142 10.6332
1 17.2216 42.526 7.8651
1 18.8498 37.7274 6.41602
1 18.9728 41.0055 9.23459
1 22.0987 37.6024 9.44706
1 21.8078 40.7724 6.23268
1 20.5794 39.0119 7.99523
1 20.3251 42.5314 10.8113
1 23.3555 38.9615 11.3692
1 23.4258 42.6045 8.03665
1 24.9819 37.8673 6.29161
1 24.9867 40.8053 9.65066
1 28.3613 37.3799 9.83047
1 27.851 40.9771 6.85001
1 26.6722 39.0307 8.15211
1 26.698 42.8597 11.1333
1 29.8888 39.0965 11.1605
1 29.8168 42.5678 8.54768
1 31.3566 37.5506 7.05127
1 31.3448 40.7805 9.64056
1 34.4754 37.0866 9.35225
1 34.2144 40.6179 6.38137
1 33.0775 39.338 8.38092
1 32.9352 42.6981 10.7673
1 35.7784 38.7291 11.1402
1 36.1962 41.8834 7.73065
1 37.2857 37.3682 6.28816
1 37.2477 40.3574 9.76459
1 40.7386 37.7846 9.24107
1 40.6172 40.5709 5.93818
1 38.8273 39.2387 7.7769
1 38.7883 42.1629 10.9243
1 42.4841 39.2476 11.0009
1 42.1853 42.0215 7.44993
1 43.5132 37.7233 6.18051
1 43.7645 40.9402 9.26983
1 46.5577 37.5825 9.49615
1 46.88 40.2739 6.13664
1 45.1593 39.2221 8.01394
1 45.1599 42.2521 10.8395
1 48.231 38.7593 11.339
1 48.2926 42.2108 7.38932
1 -0.124223 43.5188 5.94734
1 0.254568 46.4699 9.4583
1 3.12375 43.3022 9.41999
1 3.01184 47.0505 6.55267
1 1.76542 45.2253 7.72297
1 1.76001 48.8796 10.6513
1 4.67449 45.3808 10.7568
1 4.67319 48.4624 7.95705
1 6.14881 43.9745 6.20372
1 6.18781 47.18 9.497
1 9.4908 43.3957 9.46139
1 8.93089 46.5582 6.24192
1 7.56894 45.2419 8.20043
1 7.86729 48.639 11.2107
1 10.8329 45.3463 10.9595
1 10.8695 48.3316 7.93734
1 12.7057 44.0127 6.46645
1 12.7062 47.1325 9.54518
1 15.3842 43.9452 9.43847
1 15.6502 46.8238 6.01849
1 13.9956 45.509 7.78419
1 14.4772 48.533 10.5249
1 17.0651 45.523 11.1338
1 17.1079 48.4446 7.68151
1 18.7539 44.2357 6.28758
1 18.2406 47.2616 9.57892
1 21.4646 44.4085 9.41443
1 21.8287 47.1986 6.25681
1 20.0842 45.756 7.69776
1 20.4855 48.2325 10.8354
1 23.4082 45.6281 11.001
1 23.459 48.8388 8.01212
1 25.3123 43.7421 6.3459
1 25.1839 46.718 9.24213
1 28.0169 44.3499 9.51408
1 28.4039 47.2666 6.22949
1 26.7593 45.5178 7.50835
1 26.4527 48.7139 10.8855
1 29.7638 46.0856 11.0481
1 29.7617 48.6863 8.06805
1 31.094 43.942 7.04469
1 31.5936 47.0502 9.17388
1 34.5525 43.9164 9.0588
1 34.7347 47.1204 6.06773
1 33.2068 45.8426 7.65039
1 33.1415 48.3996 10.9229
1 35.8677 45.5419 11.1832
1 35.6335 48.5269 7.94116
1 37.597 43.5555 6.11092
1 37.5278 46.7727 9.46746
1 40.3334 43.6465 9.29921
1 40.7306 46.4193 5.73498
1 38.9429 45.0715 7.54353
1 38.9378 48.5264 11.0429
1 42.0815 45.0358 11.0331
1 42.2143 48.1031 7.88118
1 43.5305 43.4163 5.80456
1 43.3638 46.6676 9.53585
1 46.6781 43.593 9.30933
1 46.6975 46.704 5.89795
1 45.0019 45.0617 7.67069
1 45.1965 48.1216 10.9726
1 48.4875 45.3305 10.8965
1 48.749 48.1564 7.8617
1 0.0751561 0.0742225 12.7296
1 0.0868442 3.57975 15.5159
1 2.84794 -0.038437 15.4184
1 3.18897 3.39664 12.4914
1 1.51497 2.16476 13.9447
1 1.80821 4.86299 16.9881
1 4.50076 1.25342 17.2213
1 4.61123 4.77936 14.6254
1 6.16278 0.21925 13.1041
1 6.14401 3.03285 15.7073
1 9.72727 -0.183836 15.0048
1 9.28404 3.29092 12.426
1 7.93127 1.90452 13.917
1 7.74207 4.42872 17.4605
1 11.5932 1.5507 16.847
1 11.1986 4.99028 14.2242
1 12.8211 49.9977 12.2618
1 13.1091 3.04692 15.4275
1 16.0122 49.9048 15.5651
1 15.7138 2.92754 11.9895
1 14.509 1.33821 13.7793
1 14.0867 4.99254 17.3366
1 17.2338 1.66511 17.3732
1 17.1295 4.96441 13.5446
1 18.987 -0.13405 12.4944
1 18.3296 2.97101 15.5493
1 21.6334 0.374723 15.6522
1 21.8476 3.56554 12.2838
1 20.2604 2.19584 13.982
1 19.9759 4.63536 17.2262
1 23.2618 1.70107 17.2884
1 23.7953 4.82535 14.2666
1 24.6186 0.360151 12.3066
1 25.2994 3.01062 15.6998
1 28.0906 -0.130233 15.8024
1 28.1119 3.20685 12.5919
1 26.6979 1.45036 14.0084
1 26.5995 4.84008 17.2028
1 29.7615 1.83749 17.3364
1 29.8964 4.78257 14.1638
1 31.2608 0.0403556 12.598
1 31.4998 3.12326 15.5332
1 34.5825 0.112305 15.8833
1 34.5506 3.13653 11.8881
1 33.2121 1.62346 14.0896
1 32.8669 4.49201 17.2258
1 36.3194 1.43945 17.2438
1 36.0704 4.57654 13.7486
1 37.7465 50.0942 12.8029
1 37.7969 2.83082 15.6617
1 41.3045 49.9926 15.6955
1 40.2471 2.81575 12.2136
1 39.2516 1.24455 14.4995
1 38.8573 4.71631 17.2717
1 42.5578 1.92885 16.8752
1 42.1266 4.04506 13.7478
1 43.2468 49.6208 12.1486
1 44.0089 2.72331 15.1056
1 46.4933 -0.296758 15.7998
1 47.1266 2.5424 11.7738
1 45.2442 1.27851 13.542
1 45.4194 4.31642 16.8291
1 48.5922 1.95239 17.1059
1 48.4007 4.39988 13.5994
1 0.213248 6.11095 12.2417
1 0.259306 9.41688 15.9962
1 3.42087 6.89329 16.1475
1 2.99224 9.34663 12.1377
1 1.67497 8.17151 14.1425
1 1.95901 10.995 17.6474
1 5.14089 8.13142 17.6333
1 4.65339 11.3872 13.8713
1 6.03214 6.20894 12.4581
1 6.26233 9.60031 15.7202
1 9.29327 6.23947 15.9496
1 9.44407 9.14929 12.9053
1 7.34705 7.54451 14.1221
1 7.86895 10.785 17.1065
1 10.9116 7.76071 17.5222
1 11.1764 10.6627 14.2173
1 12.7097 5.95855 12.2197
1 12.9168 8.90398 15.639
1 16.3975 6.63659 15.8754
1 15.4895 9.58511 12.6501
1 14.4477 7.41367 13.7209
1 14.1844 10.6663 17.3366
1 17.3177 8.26936 17.2613
1 17.1948 10.8874 14.1395
1 18.711 6.58277 12.3231
1 18.8313 9.69289 15.5107
1 21.7313 6.25592 15.513
1 21.9991 9.66613 12.2374
1 20.4615 8.23655 14.2173
1 20.426 11.0254 17.1398
1 23.2944 7.8585 17.4318
1 23.1574 11.0829 14.0849
1 25.1958 6.34744 12.584
1 24.8238 9.48974 15.8945
1 28.1243 6.24293 15.8635
1 27.4777 9.23187 12.3022
1 26.6542 7.83744 14.4496
1 26.1406 11.1562 17.4833
1 29.6706 8.37571 17.3279
1 29.2842 10.559 14.0006
1 31.4365 6.19741 12.4236
1 31.6713 9.37542 15.7299
1 34.5856 6.18384 15.6764
1 34.4895 9.47163 12.3304
1 33.0046 7.79293 13.7189
1 33.0728 10.9919 17.6491
1 35.7751 7.72661 17.4203
1 35.9227 10.8643 14.1098
1 37.7114 6.20613 12.5939
1 37.3969 9.18778 15.9178
1 40.9895 5.54845 15.7846
1 40.7586 9.1459 13.0608
1 39.2949 7.85171 14.3811
1 38.9481 10.6458 17.2838
1 42.1162 7.45391 16.9067
1 42.6719 10.9468 14.2197
1 43.6994 5.80509 12.4649
1 44.1425 9.26467 15.8275
1 47.1962 6.01508 15.4937
1 47.1365 8.51877 12.9032
1 45.138 7.35471 14.247
1 45.6361 10.8222 17.4856
1 48.7534 7.85566 17.3919
1 48.7507 10.4581 14.4341
1 0.265579 12.3848 12.7055
1 0.286863 15.9047 15.757
1 3.06288 12.48 16.0026
1 3.5606 14.8944 12.4822
1 1.56543 13.9044 14.061
1 1.78578 17.1243 17.7806
1 4.83697 13.7027 17.1722